Next.js 14.2.18 - Please restart dev server
Timestamp: 2025-11-21 08:45:00
